# ODTV2 - Package Contents Checklist

## ✅ Minimal Offline Package Complete

**Location:** E:\ODTV2\  
**Size:** 0.1 MB (without models)  
**Status:** Ready to ZIP

### Core Files
- [x] index.html (112 KB) - Main dashboard app
- [x] proxy.js (2.8 KB) - Node.js proxy server
- [x] package.json (0.4 KB) - Dependencies list
- [x] CONFIG.env (0.9 KB) - Configuration

### Launchers
- [x] START-ODT.bat - Quick start
- [x] SETUP.bat - First-time setup
- [x] dev-env-standalone.bat - Alternative launcher

### Documentation
- [x] README.md (7 KB) - Full documentation
- [x] GETTING-STARTED.md (5.5 KB) - Step-by-step guide
- [x] QUICK-REFERENCE.txt (2.3 KB) - Quick reference card

### Total: 10 Files, 0.1 MB

---

## 📋 What Users Get

Users will receive a ZIP file containing:
1. Fully functional dashboard (index.html)
2. Everything needed to run it locally
3. Clear setup instructions
4. Quick start guide
5. Troubleshooting help

## ⚠️ What Users Need to Install

Users will need to install these separately:
1. Node.js (from nodejs.org)
2. Ollama (from ollama.ai)

These are one-click installs, well-documented.

## 🎯 First User Experience

1. Extract ODTV2.zip
2. Run SETUP.bat
3. Follow prompts
4. Start Ollama
5. Open index.html
6. Works offline!

## 📦 Ready to ZIP?

Yes! The ODTV2 folder is ready.

**To create the ZIP:**
```
Right-click E:\ODTV2\ → Send to → Compressed (zipped) folder
Or use WinRAR/7-Zip
```

**Result:** ODTV2.zip (~0.1 MB)

---

## ✨ What Makes This Great

✅ **Minimal** - Only essentials, no bloat  
✅ **Self-contained** - One folder, ready to go  
✅ **Well-documented** - Multiple guides included  
✅ **Quick start** - SETUP.bat automates everything  
✅ **Offline** - Works without internet (after model download)  
✅ **Complete** - Everything needed to build projects  

---

## 🚀 Next Steps

1. Review the package contents
2. Create ODTV2.zip
3. Test on a clean system
4. Share with users!

---

## 📝 Final Checklist

Before zipping, verify:
- [ ] index.html opens in browser
- [ ] proxy.js can start with `npm start`
- [ ] SETUP.bat runs without errors
- [ ] README.md has all needed info
- [ ] All files are in E:\ODTV2\
- [ ] Size is minimal (~0.1 MB)
- [ ] Documentation is clear and complete

---

**ODTV2 is ready!** 🎉
